 running  128 mpi-ranks, with    1 threads/rank, on    2 nodes
 distrk:  each k-point on  128 cores,    1 groups
 distr:  one band on   16 cores,    8 groups
 vasp.6.5.1 10Mar25 (build May 02 2025 16:22:06) gamma-only                     
  
 POSCAR found type information on POSCAR SiP 
 POSCAR found :  2 types and     512 ions
 Reading from existing POTCAR
 -----------------------------------------------------------------------------
|                                                                             |
|           W    W    AA    RRRRR   N    N  II  N    N   GGGG   !!!           |
|           W    W   A  A   R    R  NN   N  II  NN   N  G    G  !!!           |
|           W    W  A    A  R    R  N N  N  II  N N  N  G       !!!           |
|           W WW W  AAAAAA  RRRRR   N  N N  II  N  N N  G  GGG   !            |
|           WW  WW  A    A  R   R   N   NN  II  N   NN  G    G                |
|           W    W  A    A  R    R  N    N  II  N    N   GGGG   !!!           |
|                                                                             |
|     You requested a magnetic or noncollinear calculation, but did not       |
|     specify the initial magnetic moment with the MAGMOM tag. Note that      |
|     a default of 1 will be used for all atoms. This ferromagnetic setup     |
|     may break the symmetry of the crystal, in particular it may rule        |
|     out finding an antiferromagnetic solution. Thence, we recommend         |
|     setting the initial magnetic moment manually or verifying carefully     |
|     that this magnetic setup is desired.                                    |
|                                                                             |
 -----------------------------------------------------------------------------

 scaLAPACK will be used
 Reading from existing POTCAR
 LDA part: xc-table for (Slater+PW92), standard interpolation
 POSCAR, INCAR and KPOINTS ok, starting setup
 FFT: planning ... GRIDC
 FFT: planning ... GRID_SOFT
 FFT: planning ... GRID
 WAVECAR not read
 entering main loop
       N       E                     dE             d eps       ncg     rms          rms(c)
DAV:   1     0.269440344766E+04    0.26944E+04   -0.58265E+05  6144   0.666E+02
DAV:   2    -0.619944134637E+04   -0.88938E+04   -0.81415E+04  7928   0.162E+02
DAV:   3    -0.704563777605E+04   -0.84620E+03   -0.83285E+03  7608   0.461E+01
DAV:   4    -0.706702993368E+04   -0.21392E+02   -0.21216E+02  7808   0.880E+00
DAV:   5    -0.706761952466E+04   -0.58959E+00   -0.58766E+00  7760   0.142E+00    0.111E+02
DAV:   6    -0.715075551081E+04   -0.83136E+02   -0.18349E+01  7944   0.299E+00    0.788E+01
DAV:   7    -0.712671636844E+04    0.24039E+02   -0.28464E+01  7480   0.327E+00    0.497E+01
DAV:   8    -0.711607119207E+04    0.10645E+02   -0.29688E+01  7968   0.508E+00    0.151E+01
DAV:   9    -0.711701971073E+04   -0.94852E+00   -0.13523E+01  8112   0.475E+00    0.650E+00
DAV:  10    -0.711701442008E+04    0.52907E-02   -0.29901E+00  8176   0.229E+00    0.391E+00
DAV:  11    -0.711680646622E+04    0.20795E+00   -0.12083E+00  7824   0.850E-01    0.270E+00
DAV:  12    -0.711661071260E+04    0.19575E+00   -0.32396E-01  7872   0.424E-01    0.154E+00
DAV:  13    -0.711657676241E+04    0.33950E-01   -0.15799E-01  7904   0.364E-01    0.758E-01
DAV:  14    -0.711658365357E+04   -0.68912E-02   -0.44078E-02  7352   0.107E-01    0.784E-01
DAV:  15    -0.711658533373E+04   -0.16802E-02   -0.46277E-03  7376   0.499E-02    0.564E-01
DAV:  16    -0.711658762256E+04   -0.22888E-02   -0.99776E-03  6776   0.617E-02    0.229E-01
DAV:  17    -0.711658740789E+04    0.21468E-03   -0.10638E-03  7408   0.223E-02    0.121E-01
DAV:  18    -0.711658738555E+04    0.22341E-04   -0.23429E-04  7376   0.896E-03    0.879E-02
DAV:  19    -0.711658737697E+04    0.85770E-05   -0.31394E-05  7336   0.351E-03    0.705E-02
DAV:  20    -0.711658736493E+04    0.12034E-04   -0.16558E-05  7856   0.300E-03    0.443E-02
DAV:  21    -0.711658738054E+04   -0.15609E-04   -0.41530E-05  8064   0.482E-03    0.172E-02
DAV:  22    -0.711658737829E+04    0.22493E-05   -0.93416E-06  7432   0.190E-03    0.902E-03
DAV:  23    -0.711658737764E+04    0.65230E-06   -0.78342E-07  3760   0.517E-04
   1 F= -.71165874E+04 E0= -.71165874E+04  d E =-.272662-125  mag=    -1.0006
 writing wavefunctions
 running  128 mpi-ranks, with    1 threads/rank, on    2 nodes
 distrk:  each k-point on  128 cores,    1 groups
 distr:  one band on   16 cores,    8 groups
 vasp.6.5.1 10Mar25 (build May 02 2025 16:22:06) gamma-only                     
  
 POSCAR found type information on POSCAR SiP 
 POSCAR found :  2 types and     512 ions
 Reading from existing POTCAR
 -----------------------------------------------------------------------------
|                                                                             |
|           W    W    AA    RRRRR   N    N  II  N    N   GGGG   !!!           |
|           W    W   A  A   R    R  NN   N  II  NN   N  G    G  !!!           |
|           W    W  A    A  R    R  N N  N  II  N N  N  G       !!!           |
|           W WW W  AAAAAA  RRRRR   N  N N  II  N  N N  G  GGG   !            |
|           WW  WW  A    A  R   R   N   NN  II  N   NN  G    G                |
|           W    W  A    A  R    R  N    N  II  N    N   GGGG   !!!           |
|                                                                             |
|     You requested a magnetic or noncollinear calculation, but did not       |
|     specify the initial magnetic moment with the MAGMOM tag. Note that      |
|     a default of 1 will be used for all atoms. This ferromagnetic setup     |
|     may break the symmetry of the crystal, in particular it may rule        |
|     out finding an antiferromagnetic solution. Thence, we recommend         |
|     setting the initial magnetic moment manually or verifying carefully     |
|     that this magnetic setup is desired.                                    |
|                                                                             |
 -----------------------------------------------------------------------------

 scaLAPACK will be used
 Reading from existing POTCAR
 LDA part: xc-table for (Slater+PW92), standard interpolation
 found WAVECAR, reading the header
 POSCAR, INCAR and KPOINTS ok, starting setup
 FFT: planning ... GRIDC
 FFT: planning ... GRID_SOFT
 FFT: planning ... GRID
 reading WAVECAR
 the WAVECAR file was read successfully
 initial charge from wavefunction
 entering main loop
       N       E                     dE             d eps       ncg     rms          rms(c)
DAV:   1    -0.711659067568E+04   -0.71166E+04   -0.21877E-02  8352   0.187E-01    0.205E-01
DAV:   2    -0.711658861689E+04    0.20588E-02   -0.24355E-02  8416   0.298E-01    0.125E-01
DAV:   3    -0.711658673506E+04    0.18818E-02   -0.56643E-03  8352   0.132E-01    0.538E-02
DAV:   4    -0.711658718755E+04   -0.45249E-03   -0.42505E-03  7360   0.309E-02    0.568E-02
DAV:   5    -0.711658723539E+04   -0.47839E-04   -0.97133E-05  8720   0.595E-03    0.534E-02
DAV:   6    -0.711658728723E+04   -0.51840E-04   -0.20384E-05  7928   0.357E-03    0.440E-02
DAV:   7    -0.711658735129E+04   -0.64061E-04   -0.89343E-05  7656   0.534E-03    0.286E-02
DAV:   8    -0.711658737352E+04   -0.22228E-04   -0.42507E-05  7544   0.329E-03    0.150E-02
DAV:   9    -0.711658737704E+04   -0.35231E-05   -0.45794E-06  6944   0.119E-03    0.119E-02
DAV:  10    -0.711658737711E+04   -0.69325E-07   -0.46436E-07  3464   0.411E-04
   1 F= -.71165874E+04 E0= -.71165874E+04  d E =0.000000E+00  mag=     1.0000
 writing wavefunctions
 running  128 mpi-ranks, with    1 threads/rank, on    2 nodes
 distrk:  each k-point on  128 cores,    1 groups
 distr:  one band on   16 cores,    8 groups
 vasp.6.5.1 10Mar25 (build May 02 2025 16:22:06) gamma-only                     
  
 POSCAR found type information on POSCAR SiP 
 POSCAR found :  2 types and     512 ions
 Reading from existing POTCAR
 -----------------------------------------------------------------------------
|                                                                             |
|           W    W    AA    RRRRR   N    N  II  N    N   GGGG   !!!           |
|           W    W   A  A   R    R  NN   N  II  NN   N  G    G  !!!           |
|           W    W  A    A  R    R  N N  N  II  N N  N  G       !!!           |
|           W WW W  AAAAAA  RRRRR   N  N N  II  N  N N  G  GGG   !            |
|           WW  WW  A    A  R   R   N   NN  II  N   NN  G    G                |
|           W    W  A    A  R    R  N    N  II  N    N   GGGG   !!!           |
|                                                                             |
|     You requested a magnetic or noncollinear calculation, but did not       |
|     specify the initial magnetic moment with the MAGMOM tag. Note that      |
|     a default of 1 will be used for all atoms. This ferromagnetic setup     |
|     may break the symmetry of the crystal, in particular it may rule        |
|     out finding an antiferromagnetic solution. Thence, we recommend         |
|     setting the initial magnetic moment manually or verifying carefully     |
|     that this magnetic setup is desired.                                    |
|                                                                             |
 -----------------------------------------------------------------------------

 scaLAPACK will be used
 Reading from existing POTCAR
 LDA part: xc-table for (Slater+PW92), standard interpolation
 found WAVECAR, reading the header
 POSCAR, INCAR and KPOINTS ok, starting setup
 FFT: planning ... GRIDC
 FFT: planning ... GRID_SOFT
 FFT: planning ... GRID
 reading WAVECAR
 the WAVECAR file was read successfully
 initial charge from wavefunction
 entering main loop
       N       E                     dE             d eps       ncg     rms          rms(c)
DAV:   1    -0.711654604277E+04   -0.71165E+04   -0.16625E-02  6800   0.254E-02    0.701E-01
DAV:   2    -0.711654603515E+04    0.76132E-05   -0.83130E-05  7592   0.614E-03    0.559E-01
DAV:   3    -0.711654605566E+04   -0.20512E-04   -0.64730E-05  8832   0.110E-02    0.549E-02
DAV:   4    -0.711654605109E+04    0.45732E-05   -0.81921E-05  8944   0.175E-02    0.133E-02
DAV:   5    -0.711654603882E+04    0.12270E-04   -0.23717E-05  8400   0.987E-03    0.552E-03
DAV:   6    -0.711654603798E+04    0.84465E-06   -0.40013E-06  6480   0.154E-03
   1 F= -.71165460E+04 E0= -.71165460E+04  d E =-.364922-103  mag=     1.0000
 writing wavefunctions
 running  128 mpi-ranks, with    1 threads/rank, on    2 nodes
 distrk:  each k-point on  128 cores,    1 groups
 distr:  one band on   16 cores,    8 groups
 vasp.6.5.1 10Mar25 (build May 02 2025 16:22:06) gamma-only                     
  
 POSCAR found type information on POSCAR SiP 
 POSCAR found :  2 types and     512 ions
 Reading from existing POTCAR
 -----------------------------------------------------------------------------
|                                                                             |
|           W    W    AA    RRRRR   N    N  II  N    N   GGGG   !!!           |
|           W    W   A  A   R    R  NN   N  II  NN   N  G    G  !!!           |
|           W    W  A    A  R    R  N N  N  II  N N  N  G       !!!           |
|           W WW W  AAAAAA  RRRRR   N  N N  II  N  N N  G  GGG   !            |
|           WW  WW  A    A  R   R   N   NN  II  N   NN  G    G                |
|           W    W  A    A  R    R  N    N  II  N    N   GGGG   !!!           |
|                                                                             |
|     You requested a magnetic or noncollinear calculation, but did not       |
|     specify the initial magnetic moment with the MAGMOM tag. Note that      |
|     a default of 1 will be used for all atoms. This ferromagnetic setup     |
|     may break the symmetry of the crystal, in particular it may rule        |
|     out finding an antiferromagnetic solution. Thence, we recommend         |
|     setting the initial magnetic moment manually or verifying carefully     |
|     that this magnetic setup is desired.                                    |
|                                                                             |
 -----------------------------------------------------------------------------

 scaLAPACK will be used
 Reading from existing POTCAR
 LDA part: xc-table for (Slater+PW92), standard interpolation
 found WAVECAR, reading the header
 POSCAR, INCAR and KPOINTS ok, starting setup
 FFT: planning ... GRIDC
 FFT: planning ... GRID_SOFT
 FFT: planning ... GRID
 reading WAVECAR
 the WAVECAR file was read successfully
 initial charge from wavefunction
 entering main loop
       N       E                     dE             d eps       ncg     rms          rms(c)
DAV:   1    -0.711654603905E+04   -0.71165E+04   -0.81951E-06  6920   0.281E-03    0.408E-03
DAV:   2    -0.711654603820E+04    0.84972E-06   -0.57956E-06  7160   0.377E-03
   1 F= -.71165460E+04 E0= -.71165460E+04  d E =0.000000E+00  mag=     1.0000
 writing wavefunctions
 running  128 mpi-ranks, with    1 threads/rank, on    2 nodes
 distrk:  each k-point on  128 cores,    1 groups
 distr:  one band on   16 cores,    8 groups
 vasp.6.5.1 10Mar25 (build May 02 2025 16:22:06) gamma-only                     
  
 POSCAR found type information on POSCAR SiP 
 POSCAR found :  2 types and     512 ions
 Reading from existing POTCAR
 -----------------------------------------------------------------------------
|                                                                             |
|           W    W    AA    RRRRR   N    N  II  N    N   GGGG   !!!           |
|           W    W   A  A   R    R  NN   N  II  NN   N  G    G  !!!           |
|           W    W  A    A  R    R  N N  N  II  N N  N  G       !!!           |
|           W WW W  AAAAAA  RRRRR   N  N N  II  N  N N  G  GGG   !            |
|           WW  WW  A    A  R   R   N   NN  II  N   NN  G    G                |
|           W    W  A    A  R    R  N    N  II  N    N   GGGG   !!!           |
|                                                                             |
|     You requested a magnetic or noncollinear calculation, but did not       |
|     specify the initial magnetic moment with the MAGMOM tag. Note that      |
|     a default of 1 will be used for all atoms. This ferromagnetic setup     |
|     may break the symmetry of the crystal, in particular it may rule        |
|     out finding an antiferromagnetic solution. Thence, we recommend         |
|     setting the initial magnetic moment manually or verifying carefully     |
|     that this magnetic setup is desired.                                    |
|                                                                             |
 -----------------------------------------------------------------------------

 scaLAPACK will be used
 Reading from existing POTCAR
 LDA part: xc-table for (Slater+PW92), standard interpolation
 found WAVECAR, reading the header
 POSCAR, INCAR and KPOINTS ok, starting setup
 FFT: planning ... GRIDC
 FFT: planning ... GRID_SOFT
 FFT: planning ... GRID
 reading WAVECAR
 the WAVECAR file was read successfully
 initial charge from wavefunction
 entering main loop
       N       E                     dE             d eps       ncg     rms          rms(c)
DAV:   1    -0.711706209342E+04   -0.71171E+04   -0.23618E-01  6584   0.137E-01    0.129E+00
DAV:   2    -0.711705923992E+04    0.28535E-02   -0.46691E-03  8408   0.353E-02    0.101E+00
DAV:   3    -0.711705866697E+04    0.57295E-03   -0.11677E-02  8664   0.757E-02    0.432E-01
DAV:   4    -0.711705876185E+04   -0.94880E-04   -0.40095E-03  9288   0.975E-02    0.172E-01
DAV:   5    -0.711705822885E+04    0.53300E-03   -0.15162E-03  9008   0.721E-02    0.929E-02
DAV:   6    -0.711705808125E+04    0.14760E-03   -0.74603E-04  8760   0.317E-02    0.619E-02
DAV:   7    -0.711705808140E+04   -0.15410E-06   -0.25607E-04  7992   0.105E-02    0.400E-02
DAV:   8    -0.711705807363E+04    0.77724E-05   -0.32472E-05  8016   0.600E-03    0.178E-02
DAV:   9    -0.711705807114E+04    0.24915E-05   -0.25091E-05  7624   0.348E-03    0.862E-03
DAV:  10    -0.711705807124E+04   -0.99593E-07   -0.76268E-06  7056   0.150E-03
   1 F= -.71170581E+04 E0= -.71170581E+04  d E =-.886081E-45  mag=     1.0000
 writing wavefunctions
 running  128 mpi-ranks, with    1 threads/rank, on    2 nodes
 distrk:  each k-point on  128 cores,    1 groups
 distr:  one band on   16 cores,    8 groups
 vasp.6.5.1 10Mar25 (build May 02 2025 16:22:06) gamma-only                     
  
 POSCAR found type information on POSCAR SiP 
 POSCAR found :  2 types and     512 ions
 Reading from existing POTCAR
 -----------------------------------------------------------------------------
|                                                                             |
|           W    W    AA    RRRRR   N    N  II  N    N   GGGG   !!!           |
|           W    W   A  A   R    R  NN   N  II  NN   N  G    G  !!!           |
|           W    W  A    A  R    R  N N  N  II  N N  N  G       !!!           |
|           W WW W  AAAAAA  RRRRR   N  N N  II  N  N N  G  GGG   !            |
|           WW  WW  A    A  R   R   N   NN  II  N   NN  G    G                |
|           W    W  A    A  R    R  N    N  II  N    N   GGGG   !!!           |
|                                                                             |
|     You requested a magnetic or noncollinear calculation, but did not       |
|     specify the initial magnetic moment with the MAGMOM tag. Note that      |
|     a default of 1 will be used for all atoms. This ferromagnetic setup     |
|     may break the symmetry of the crystal, in particular it may rule        |
|     out finding an antiferromagnetic solution. Thence, we recommend         |
|     setting the initial magnetic moment manually or verifying carefully     |
|     that this magnetic setup is desired.                                    |
|                                                                             |
 -----------------------------------------------------------------------------

 scaLAPACK will be used
 Reading from existing POTCAR
 LDA part: xc-table for (Slater+PW92), standard interpolation
 found WAVECAR, reading the header
 POSCAR, INCAR and KPOINTS ok, starting setup
 FFT: planning ... GRIDC
 FFT: planning ... GRID_SOFT
 FFT: planning ... GRID
 reading WAVECAR
 the WAVECAR file was read successfully
 initial charge from wavefunction
 entering main loop
       N       E                     dE             d eps       ncg     rms          rms(c)
DAV:   1    -0.711705807206E+04   -0.71171E+04   -0.59340E-06  6872   0.261E-03    0.376E-03
DAV:   2    -0.711705807113E+04    0.92597E-06   -0.25310E-06  6808   0.268E-03
   1 F= -.71170581E+04 E0= -.71170581E+04  d E =0.000000E+00  mag=     1.0000
 writing wavefunctions
 running  128 mpi-ranks, with    1 threads/rank, on    2 nodes
 distrk:  each k-point on  128 cores,    1 groups
 distr:  one band on   16 cores,    8 groups
 vasp.6.5.1 10Mar25 (build May 02 2025 16:22:06) gamma-only                     
  
 POSCAR found type information on POSCAR SiP 
 POSCAR found :  2 types and     512 ions
 Reading from existing POTCAR
 -----------------------------------------------------------------------------
|                                                                             |
|           W    W    AA    RRRRR   N    N  II  N    N   GGGG   !!!           |
|           W    W   A  A   R    R  NN   N  II  NN   N  G    G  !!!           |
|           W    W  A    A  R    R  N N  N  II  N N  N  G       !!!           |
|           W WW W  AAAAAA  RRRRR   N  N N  II  N  N N  G  GGG   !            |
|           WW  WW  A    A  R   R   N   NN  II  N   NN  G    G                |
|           W    W  A    A  R    R  N    N  II  N    N   GGGG   !!!           |
|                                                                             |
|     You requested a magnetic or noncollinear calculation, but did not       |
|     specify the initial magnetic moment with the MAGMOM tag. Note that      |
|     a default of 1 will be used for all atoms. This ferromagnetic setup     |
|     may break the symmetry of the crystal, in particular it may rule        |
|     out finding an antiferromagnetic solution. Thence, we recommend         |
|     setting the initial magnetic moment manually or verifying carefully     |
|     that this magnetic setup is desired.                                    |
|                                                                             |
 -----------------------------------------------------------------------------

 scaLAPACK will be used
 Reading from existing POTCAR
 LDA part: xc-table for (Slater+PW92), standard interpolation
 found WAVECAR, reading the header
 POSCAR, INCAR and KPOINTS ok, starting setup
 FFT: planning ... GRIDC
 FFT: planning ... GRID_SOFT
 FFT: planning ... GRID
 reading WAVECAR
 the WAVECAR file was read successfully
 initial charge from wavefunction
 entering main loop
       N       E                     dE             d eps       ncg     rms          rms(c)
DAV:   1    -0.712002160211E+04   -0.71200E+04   -0.11102E+00  6312   0.280E-01    0.185E+00
DAV:   2    -0.711995952279E+04    0.62079E-01   -0.14562E-01  8392   0.247E-01    0.149E+00
DAV:   3    -0.711994964819E+04    0.98746E-02   -0.17846E-01  8680   0.303E-01    0.853E-01
DAV:   4    -0.711994871648E+04    0.93172E-03   -0.35901E-02  8832   0.257E-01    0.507E-01
DAV:   5    -0.711994757243E+04    0.11440E-02   -0.13384E-02  8408   0.118E-01    0.198E-01
DAV:   6    -0.711994749677E+04    0.75662E-04   -0.21209E-03  8088   0.402E-02    0.108E-01
DAV:   7    -0.711994743240E+04    0.64374E-04   -0.84609E-04  7656   0.183E-02    0.716E-02
DAV:   8    -0.711994741254E+04    0.19858E-04   -0.15618E-04  7904   0.963E-03    0.518E-02
DAV:   9    -0.711994740002E+04    0.12518E-04   -0.79192E-05  7712   0.576E-03    0.232E-02
DAV:  10    -0.711994739768E+04    0.23414E-05   -0.20077E-05  8104   0.522E-03    0.919E-03
DAV:  11    -0.711994739836E+04   -0.67675E-06   -0.11283E-05  7600   0.232E-03    0.862E-03
DAV:  12    -0.711994739828E+04    0.75495E-07   -0.14414E-06  3784   0.716E-04
   1 F= -.71199474E+04 E0= -.71199474E+04  d E =-.437971E-86  mag=     1.0000
 writing wavefunctions
 running  128 mpi-ranks, with    1 threads/rank, on    2 nodes
 distrk:  each k-point on  128 cores,    1 groups
 distr:  one band on   16 cores,    8 groups
 vasp.6.5.1 10Mar25 (build May 02 2025 16:22:06) gamma-only                     
  
 POSCAR found type information on POSCAR SiP 
 POSCAR found :  2 types and     512 ions
 Reading from existing POTCAR
 -----------------------------------------------------------------------------
|                                                                             |
|           W    W    AA    RRRRR   N    N  II  N    N   GGGG   !!!           |
|           W    W   A  A   R    R  NN   N  II  NN   N  G    G  !!!           |
|           W    W  A    A  R    R  N N  N  II  N N  N  G       !!!           |
|           W WW W  AAAAAA  RRRRR   N  N N  II  N  N N  G  GGG   !            |
|           WW  WW  A    A  R   R   N   NN  II  N   NN  G    G                |
|           W    W  A    A  R    R  N    N  II  N    N   GGGG   !!!           |
|                                                                             |
|     You requested a magnetic or noncollinear calculation, but did not       |
|     specify the initial magnetic moment with the MAGMOM tag. Note that      |
|     a default of 1 will be used for all atoms. This ferromagnetic setup     |
|     may break the symmetry of the crystal, in particular it may rule        |
|     out finding an antiferromagnetic solution. Thence, we recommend         |
|     setting the initial magnetic moment manually or verifying carefully     |
|     that this magnetic setup is desired.                                    |
|                                                                             |
 -----------------------------------------------------------------------------

 scaLAPACK will be used
 Reading from existing POTCAR
 LDA part: xc-table for (Slater+PW92), standard interpolation
 found WAVECAR, reading the header
 POSCAR, INCAR and KPOINTS ok, starting setup
 FFT: planning ... GRIDC
 FFT: planning ... GRID_SOFT
 FFT: planning ... GRID
 reading WAVECAR
 the WAVECAR file was read successfully
 initial charge from wavefunction
 entering main loop
       N       E                     dE             d eps       ncg     rms          rms(c)
DAV:   1    -0.711994739898E+04   -0.71199E+04   -0.27753E-06  6680   0.265E-03    0.316E-03
DAV:   2    -0.711994739846E+04    0.51569E-06   -0.29576E-06  6360   0.367E-03
   1 F= -.71199474E+04 E0= -.71199474E+04  d E =0.000000E+00  mag=     1.0000
 writing wavefunctions
 running  128 mpi-ranks, with    1 threads/rank, on    2 nodes
 distrk:  each k-point on  128 cores,    1 groups
 distr:  one band on   16 cores,    8 groups
 vasp.6.5.1 10Mar25 (build May 02 2025 16:22:06) gamma-only                     
  
 POSCAR found type information on POSCAR SiP 
 POSCAR found :  2 types and     512 ions
 Reading from existing POTCAR
 -----------------------------------------------------------------------------
|                                                                             |
|           W    W    AA    RRRRR   N    N  II  N    N   GGGG   !!!           |
|           W    W   A  A   R    R  NN   N  II  NN   N  G    G  !!!           |
|           W    W  A    A  R    R  N N  N  II  N N  N  G       !!!           |
|           W WW W  AAAAAA  RRRRR   N  N N  II  N  N N  G  GGG   !            |
|           WW  WW  A    A  R   R   N   NN  II  N   NN  G    G                |
|           W    W  A    A  R    R  N    N  II  N    N   GGGG   !!!           |
|                                                                             |
|     You requested a magnetic or noncollinear calculation, but did not       |
|     specify the initial magnetic moment with the MAGMOM tag. Note that      |
|     a default of 1 will be used for all atoms. This ferromagnetic setup     |
|     may break the symmetry of the crystal, in particular it may rule        |
|     out finding an antiferromagnetic solution. Thence, we recommend         |
|     setting the initial magnetic moment manually or verifying carefully     |
|     that this magnetic setup is desired.                                    |
|                                                                             |
 -----------------------------------------------------------------------------

 scaLAPACK will be used
 Reading from existing POTCAR
 LDA part: xc-table for (Slater+PW92), standard interpolation
 found WAVECAR, reading the header
 POSCAR, INCAR and KPOINTS ok, starting setup
 FFT: planning ... GRIDC
 FFT: planning ... GRID_SOFT
 FFT: planning ... GRID
 reading WAVECAR
 the WAVECAR file was read successfully
 initial charge from wavefunction
 entering main loop
       N       E                     dE             d eps       ncg     rms          rms(c)
DAV:   1    -0.712531940673E+04   -0.71253E+04   -0.14426E+00  7304   0.401E-01    0.197E+00
DAV:   2    -0.712522486549E+04    0.94541E-01   -0.45591E-01  8152   0.401E-01    0.113E+00
DAV:   3    -0.712519258597E+04    0.32280E-01   -0.19937E-01  8352   0.343E-01    0.610E-01
DAV:   4    -0.712518691796E+04    0.56680E-02   -0.48604E-02  8624   0.223E-01    0.405E-01
DAV:   5    -0.712518691945E+04   -0.14845E-05   -0.28864E-02  7928   0.107E-01    0.292E-01
DAV:   6    -0.712518716657E+04   -0.24712E-03   -0.36611E-03  7928   0.354E-02    0.248E-01
DAV:   7    -0.712518697881E+04    0.18776E-03   -0.85749E-04  7768   0.266E-02    0.134E-01
DAV:   8    -0.712518691093E+04    0.67885E-04   -0.68901E-04  7576   0.168E-02    0.429E-02
DAV:   9    -0.712518693376E+04   -0.22835E-04   -0.34719E-04  7072   0.765E-03    0.341E-02
DAV:  10    -0.712518692775E+04    0.60085E-05   -0.14195E-05  7688   0.276E-03    0.265E-02
DAV:  11    -0.712518692162E+04    0.61299E-05   -0.14737E-05  7416   0.259E-03    0.142E-02
DAV:  12    -0.712518692146E+04    0.15885E-06   -0.86590E-06  7560   0.202E-03
   1 F= -.71251869E+04 E0= -.71251869E+04  d E =-.163177E-58  mag=     1.0000
 writing wavefunctions
 running  128 mpi-ranks, with    1 threads/rank, on    2 nodes
 distrk:  each k-point on  128 cores,    1 groups
 distr:  one band on   16 cores,    8 groups
 vasp.6.5.1 10Mar25 (build May 02 2025 16:22:06) gamma-only                     
  
 POSCAR found type information on POSCAR SiP 
 POSCAR found :  2 types and     512 ions
 Reading from existing POTCAR
 -----------------------------------------------------------------------------
|                                                                             |
|           W    W    AA    RRRRR   N    N  II  N    N   GGGG   !!!           |
|           W    W   A  A   R    R  NN   N  II  NN   N  G    G  !!!           |
|           W    W  A    A  R    R  N N  N  II  N N  N  G       !!!           |
|           W WW W  AAAAAA  RRRRR   N  N N  II  N  N N  G  GGG   !            |
|           WW  WW  A    A  R   R   N   NN  II  N   NN  G    G                |
|           W    W  A    A  R    R  N    N  II  N    N   GGGG   !!!           |
|                                                                             |
|     You requested a magnetic or noncollinear calculation, but did not       |
|     specify the initial magnetic moment with the MAGMOM tag. Note that      |
|     a default of 1 will be used for all atoms. This ferromagnetic setup     |
|     may break the symmetry of the crystal, in particular it may rule        |
|     out finding an antiferromagnetic solution. Thence, we recommend         |
|     setting the initial magnetic moment manually or verifying carefully     |
|     that this magnetic setup is desired.                                    |
|                                                                             |
 -----------------------------------------------------------------------------

 scaLAPACK will be used
 Reading from existing POTCAR
 LDA part: xc-table for (Slater+PW92), standard interpolation
 found WAVECAR, reading the header
 POSCAR, INCAR and KPOINTS ok, starting setup
 FFT: planning ... GRIDC
 FFT: planning ... GRID_SOFT
 FFT: planning ... GRID
 reading WAVECAR
 the WAVECAR file was read successfully
 initial charge from wavefunction
 entering main loop
       N       E                     dE             d eps       ncg     rms          rms(c)
DAV:   1    -0.712518693551E+04   -0.71252E+04   -0.24932E-05  8504   0.113E-02    0.932E-03
DAV:   2    -0.712518692770E+04    0.78182E-05   -0.46673E-05  8088   0.168E-02    0.728E-03
DAV:   3    -0.712518692100E+04    0.66943E-05   -0.70448E-06  6616   0.681E-03    0.237E-03
DAV:   4    -0.712518692110E+04   -0.95170E-07   -0.19578E-06  5760   0.902E-04
   1 F= -.71251869E+04 E0= -.71251869E+04  d E =0.000000E+00  mag=     1.0000
 writing wavefunctions
 running  128 mpi-ranks, with    1 threads/rank, on    2 nodes
 distrk:  each k-point on  128 cores,    1 groups
 distr:  one band on   16 cores,    8 groups
 vasp.6.5.1 10Mar25 (build May 02 2025 16:22:06) gamma-only                     
  
 POSCAR found type information on POSCAR SiP 
 POSCAR found :  2 types and     512 ions
 Reading from existing POTCAR
 -----------------------------------------------------------------------------
|                                                                             |
|           W    W    AA    RRRRR   N    N  II  N    N   GGGG   !!!           |
|           W    W   A  A   R    R  NN   N  II  NN   N  G    G  !!!           |
|           W    W  A    A  R    R  N N  N  II  N N  N  G       !!!           |
|           W WW W  AAAAAA  RRRRR   N  N N  II  N  N N  G  GGG   !            |
|           WW  WW  A    A  R   R   N   NN  II  N   NN  G    G                |
|           W    W  A    A  R    R  N    N  II  N    N   GGGG   !!!           |
|                                                                             |
|     You requested a magnetic or noncollinear calculation, but did not       |
|     specify the initial magnetic moment with the MAGMOM tag. Note that      |
|     a default of 1 will be used for all atoms. This ferromagnetic setup     |
|     may break the symmetry of the crystal, in particular it may rule        |
|     out finding an antiferromagnetic solution. Thence, we recommend         |
|     setting the initial magnetic moment manually or verifying carefully     |
|     that this magnetic setup is desired.                                    |
|                                                                             |
 -----------------------------------------------------------------------------

 scaLAPACK will be used
 Reading from existing POTCAR
 LDA part: xc-table for (Slater+PW92), standard interpolation
 found WAVECAR, reading the header
 POSCAR, INCAR and KPOINTS ok, starting setup
 FFT: planning ... GRIDC
 FFT: planning ... GRID_SOFT
 FFT: planning ... GRID
 reading WAVECAR
 the WAVECAR file was read successfully
 initial charge from wavefunction
 entering main loop
       N       E                     dE             d eps       ncg     rms          rms(c)
DAV:   1    -0.713097620374E+04   -0.71310E+04   -0.82363E-01  7816   0.400E-01    0.217E+00
DAV:   2    -0.713093714518E+04    0.39059E-01   -0.26841E-01  7936   0.266E-01    0.126E+00
DAV:   3    -0.713091125194E+04    0.25893E-01   -0.80326E-02  8536   0.329E-01    0.822E-01
DAV:   4    -0.713091008175E+04    0.11702E-02   -0.62749E-02  8408   0.230E-01    0.639E-01
DAV:   5    -0.713091296045E+04   -0.28787E-02   -0.32407E-02  7232   0.823E-02    0.741E-01
DAV:   6    -0.713091300349E+04   -0.43043E-04   -0.15923E-03  7704   0.197E-02    0.741E-01
DAV:   7    -0.713091330723E+04   -0.30374E-03   -0.49682E-05  8096   0.620E-03    0.770E-01
DAV:   8    -0.713090864367E+04    0.46636E-02   -0.91128E-03  8664   0.644E-02    0.175E-01
DAV:   9    -0.713090926885E+04   -0.62518E-03   -0.94441E-03  8192   0.604E-02    0.212E-01
DAV:  10    -0.713090930060E+04   -0.31749E-04   -0.17128E-03  7136   0.201E-02    0.280E-01
DAV:  11    -0.713090920777E+04    0.92831E-04   -0.64377E-05  7576   0.487E-03    0.225E-01
DAV:  12    -0.713090917851E+04    0.29258E-04   -0.13252E-05  7000   0.178E-03    0.214E-01
DAV:  13    -0.713090890081E+04    0.27770E-03   -0.27802E-04  7520   0.998E-03    0.976E-02
DAV:  14    -0.713090887517E+04    0.25649E-04   -0.33484E-04  7608   0.717E-03    0.211E-02
DAV:  15    -0.713090887630E+04   -0.11360E-05   -0.33877E-05  7680   0.257E-03    0.216E-02
DAV:  16    -0.713090887651E+04   -0.20990E-06   -0.27948E-06  4952   0.748E-04
   1 F= -.71309089E+04 E0= -.71309089E+04  d E =-.559786-138  mag=     1.0000
 writing wavefunctions
 running  128 mpi-ranks, with    1 threads/rank, on    2 nodes
 distrk:  each k-point on  128 cores,    1 groups
 distr:  one band on   16 cores,    8 groups
 vasp.6.5.1 10Mar25 (build May 02 2025 16:22:06) gamma-only                     
  
 POSCAR found type information on POSCAR SiP 
 POSCAR found :  2 types and     512 ions
 Reading from existing POTCAR
 -----------------------------------------------------------------------------
|                                                                             |
|           W    W    AA    RRRRR   N    N  II  N    N   GGGG   !!!           |
|           W    W   A  A   R    R  NN   N  II  NN   N  G    G  !!!           |
|           W    W  A    A  R    R  N N  N  II  N N  N  G       !!!           |
|           W WW W  AAAAAA  RRRRR   N  N N  II  N  N N  G  GGG   !            |
|           WW  WW  A    A  R   R   N   NN  II  N   NN  G    G                |
|           W    W  A    A  R    R  N    N  II  N    N   GGGG   !!!           |
|                                                                             |
|     You requested a magnetic or noncollinear calculation, but did not       |
|     specify the initial magnetic moment with the MAGMOM tag. Note that      |
|     a default of 1 will be used for all atoms. This ferromagnetic setup     |
|     may break the symmetry of the crystal, in particular it may rule        |
|     out finding an antiferromagnetic solution. Thence, we recommend         |
|     setting the initial magnetic moment manually or verifying carefully     |
|     that this magnetic setup is desired.                                    |
|                                                                             |
 -----------------------------------------------------------------------------

 scaLAPACK will be used
 Reading from existing POTCAR
 LDA part: xc-table for (Slater+PW92), standard interpolation
 found WAVECAR, reading the header
 POSCAR, INCAR and KPOINTS ok, starting setup
 FFT: planning ... GRIDC
 FFT: planning ... GRID_SOFT
 FFT: planning ... GRID
 reading WAVECAR
 the WAVECAR file was read successfully
 initial charge from wavefunction
 entering main loop
       N       E                     dE             d eps       ncg     rms          rms(c)
DAV:   1    -0.713090887771E+04   -0.71309E+04   -0.80527E-06  7016   0.317E-03    0.428E-03
DAV:   2    -0.713090887623E+04    0.14767E-05   -0.54285E-06  7512   0.367E-03    0.338E-03
DAV:   3    -0.713090887601E+04    0.22311E-06   -0.94310E-07  5792   0.139E-03
   1 F= -.71309089E+04 E0= -.71309089E+04  d E =0.000000E+00  mag=     1.0000
 writing wavefunctions
 running  128 mpi-ranks, with    1 threads/rank, on    2 nodes
 distrk:  each k-point on  128 cores,    1 groups
 distr:  one band on   16 cores,    8 groups
 vasp.6.5.1 10Mar25 (build May 02 2025 16:22:06) gamma-only                     
  
 POSCAR found type information on POSCAR SiP 
 POSCAR found :  2 types and     512 ions
 Reading from existing POTCAR
 -----------------------------------------------------------------------------
|                                                                             |
|           W    W    AA    RRRRR   N    N  II  N    N   GGGG   !!!           |
|           W    W   A  A   R    R  NN   N  II  NN   N  G    G  !!!           |
|           W    W  A    A  R    R  N N  N  II  N N  N  G       !!!           |
|           W WW W  AAAAAA  RRRRR   N  N N  II  N  N N  G  GGG   !            |
|           WW  WW  A    A  R   R   N   NN  II  N   NN  G    G                |
|           W    W  A    A  R    R  N    N  II  N    N   GGGG   !!!           |
|                                                                             |
|     You requested a magnetic or noncollinear calculation, but did not       |
|     specify the initial magnetic moment with the MAGMOM tag. Note that      |
|     a default of 1 will be used for all atoms. This ferromagnetic setup     |
|     may break the symmetry of the crystal, in particular it may rule        |
|     out finding an antiferromagnetic solution. Thence, we recommend         |
|     setting the initial magnetic moment manually or verifying carefully     |
|     that this magnetic setup is desired.                                    |
|                                                                             |
 -----------------------------------------------------------------------------

 scaLAPACK will be used
 Reading from existing POTCAR
 LDA part: xc-table for (Slater+PW92), standard interpolation
 found WAVECAR, reading the header
 POSCAR, INCAR and KPOINTS ok, starting setup
 FFT: planning ... GRIDC
 FFT: planning ... GRID_SOFT
 FFT: planning ... GRID
 reading WAVECAR
 the WAVECAR file was read successfully
 initial charge from wavefunction
 entering main loop
       N       E                     dE             d eps       ncg     rms          rms(c)
DAV:   1    -0.713601002341E+04   -0.71360E+04   -0.68895E-01  7432   0.369E-01    0.160E+00
DAV:   2    -0.713600120194E+04    0.88215E-02   -0.10027E-01  7376   0.168E-01    0.858E-01
DAV:   3    -0.713599621920E+04    0.49827E-02   -0.26365E-02  8360   0.197E-01    0.498E-01
DAV:   4    -0.713599534358E+04    0.87562E-03   -0.15583E-02  8352   0.134E-01    0.334E-01
DAV:   5    -0.713599592440E+04   -0.58082E-03   -0.81902E-03  7344   0.465E-02    0.312E-01
DAV:   6    -0.713599561019E+04    0.31421E-03   -0.48627E-04  7736   0.171E-02    0.249E-01
DAV:   7    -0.713599499197E+04    0.61822E-03   -0.20447E-03  7880   0.336E-02    0.790E-02
DAV:   8    -0.713599508797E+04   -0.96000E-04   -0.10125E-03  7280   0.140E-02    0.720E-02
DAV:   9    -0.713599508510E+04    0.28668E-05   -0.38511E-05  7968   0.434E-03    0.480E-02
DAV:  10    -0.713599508468E+04    0.42145E-06   -0.38939E-05  7776   0.520E-03    0.136E-02
DAV:  11    -0.713599508447E+04    0.21252E-06   -0.19166E-05  7488   0.344E-03    0.113E-02
DAV:  12    -0.713599508470E+04   -0.23155E-06   -0.27402E-06  4944   0.102E-03
   1 F= -.71359951E+04 E0= -.71359951E+04  d E =-.159428E-20  mag=     1.0000
 writing wavefunctions
 running  128 mpi-ranks, with    1 threads/rank, on    2 nodes
 distrk:  each k-point on  128 cores,    1 groups
 distr:  one band on   16 cores,    8 groups
 vasp.6.5.1 10Mar25 (build May 02 2025 16:22:06) gamma-only                     
  
 POSCAR found type information on POSCAR SiP 
 POSCAR found :  2 types and     512 ions
 Reading from existing POTCAR
 -----------------------------------------------------------------------------
|                                                                             |
|           W    W    AA    RRRRR   N    N  II  N    N   GGGG   !!!           |
|           W    W   A  A   R    R  NN   N  II  NN   N  G    G  !!!           |
|           W    W  A    A  R    R  N N  N  II  N N  N  G       !!!           |
|           W WW W  AAAAAA  RRRRR   N  N N  II  N  N N  G  GGG   !            |
|           WW  WW  A    A  R   R   N   NN  II  N   NN  G    G                |
|           W    W  A    A  R    R  N    N  II  N    N   GGGG   !!!           |
|                                                                             |
|     You requested a magnetic or noncollinear calculation, but did not       |
|     specify the initial magnetic moment with the MAGMOM tag. Note that      |
|     a default of 1 will be used for all atoms. This ferromagnetic setup     |
|     may break the symmetry of the crystal, in particular it may rule        |
|     out finding an antiferromagnetic solution. Thence, we recommend         |
|     setting the initial magnetic moment manually or verifying carefully     |
|     that this magnetic setup is desired.                                    |
|                                                                             |
 -----------------------------------------------------------------------------

 scaLAPACK will be used
 Reading from existing POTCAR
 LDA part: xc-table for (Slater+PW92), standard interpolation
 found WAVECAR, reading the header
 POSCAR, INCAR and KPOINTS ok, starting setup
 FFT: planning ... GRIDC
 FFT: planning ... GRID_SOFT
 FFT: planning ... GRID
 reading WAVECAR
 the WAVECAR file was read successfully
 initial charge from wavefunction
 entering main loop
       N       E                     dE             d eps       ncg     rms          rms(c)
DAV:   1    -0.713599508531E+04   -0.71360E+04   -0.36920E-06  6464   0.218E-03    0.287E-03
DAV:   2    -0.713599508449E+04    0.82198E-06   -0.23951E-06  6608   0.234E-03
   1 F= -.71359951E+04 E0= -.71359951E+04  d E =0.000000E+00  mag=     1.0000
 writing wavefunctions
 running  128 mpi-ranks, with    1 threads/rank, on    2 nodes
 distrk:  each k-point on  128 cores,    1 groups
 distr:  one band on   16 cores,    8 groups
 vasp.6.5.1 10Mar25 (build May 02 2025 16:22:06) gamma-only                     
  
 POSCAR found type information on POSCAR SiP 
 POSCAR found :  2 types and     512 ions
 Reading from existing POTCAR
 -----------------------------------------------------------------------------
|                                                                             |
|           W    W    AA    RRRRR   N    N  II  N    N   GGGG   !!!           |
|           W    W   A  A   R    R  NN   N  II  NN   N  G    G  !!!           |
|           W    W  A    A  R    R  N N  N  II  N N  N  G       !!!           |
|           W WW W  AAAAAA  RRRRR   N  N N  II  N  N N  G  GGG   !            |
|           WW  WW  A    A  R   R   N   NN  II  N   NN  G    G                |
|           W    W  A    A  R    R  N    N  II  N    N   GGGG   !!!           |
|                                                                             |
|     You requested a magnetic or noncollinear calculation, but did not       |
|     specify the initial magnetic moment with the MAGMOM tag. Note that      |
|     a default of 1 will be used for all atoms. This ferromagnetic setup     |
|     may break the symmetry of the crystal, in particular it may rule        |
|     out finding an antiferromagnetic solution. Thence, we recommend         |
|     setting the initial magnetic moment manually or verifying carefully     |
|     that this magnetic setup is desired.                                    |
|                                                                             |
 -----------------------------------------------------------------------------

 scaLAPACK will be used
 Reading from existing POTCAR
 LDA part: xc-table for (Slater+PW92), standard interpolation
 found WAVECAR, reading the header
 POSCAR, INCAR and KPOINTS ok, starting setup
 FFT: planning ... GRIDC
 FFT: planning ... GRID_SOFT
 FFT: planning ... GRID
 reading WAVECAR
 the WAVECAR file was read successfully
 initial charge from wavefunction
 entering main loop
       N       E                     dE             d eps       ncg     rms          rms(c)
DAV:   1    -0.714037288678E+04   -0.71404E+04   -0.68735E-01  7664   0.339E-01    0.118E+00
DAV:   2    -0.714036650665E+04    0.63801E-02   -0.73154E-02  7664   0.166E-01    0.598E-01
DAV:   3    -0.714036286868E+04    0.36380E-02   -0.12321E-02  8344   0.140E-01    0.416E-01
DAV:   4    -0.714036073526E+04    0.21334E-02   -0.73770E-03  8376   0.107E-01    0.210E-01
DAV:   5    -0.714036033613E+04    0.39913E-03   -0.36090E-03  8096   0.551E-02    0.150E-01
DAV:   6    -0.714036031786E+04    0.18275E-04   -0.99849E-04  7568   0.205E-02    0.112E-01
DAV:   7    -0.714036032632E+04   -0.84646E-05   -0.28549E-04  8176   0.179E-02    0.738E-02
DAV:   8    -0.714036032794E+04   -0.16161E-05   -0.22927E-04  7864   0.126E-02    0.340E-02
DAV:   9    -0.714036032347E+04    0.44685E-05   -0.47875E-05  7720   0.449E-03    0.221E-02
DAV:  10    -0.714036032100E+04    0.24675E-05   -0.18605E-05  7696   0.312E-03    0.102E-02
DAV:  11    -0.714036032026E+04    0.73819E-06   -0.80930E-06  7408   0.182E-03
   1 F= -.71403603E+04 E0= -.71403603E+04  d E =-.176934E-21  mag=     1.0000
 writing wavefunctions
 running  128 mpi-ranks, with    1 threads/rank, on    2 nodes
 distrk:  each k-point on  128 cores,    1 groups
 distr:  one band on   16 cores,    8 groups
 vasp.6.5.1 10Mar25 (build May 02 2025 16:22:06) gamma-only                     
  
 POSCAR found type information on POSCAR SiP 
 POSCAR found :  2 types and     512 ions
 Reading from existing POTCAR
 -----------------------------------------------------------------------------
|                                                                             |
|           W    W    AA    RRRRR   N    N  II  N    N   GGGG   !!!           |
|           W    W   A  A   R    R  NN   N  II  NN   N  G    G  !!!           |
|           W    W  A    A  R    R  N N  N  II  N N  N  G       !!!           |
|           W WW W  AAAAAA  RRRRR   N  N N  II  N  N N  G  GGG   !            |
|           WW  WW  A    A  R   R   N   NN  II  N   NN  G    G                |
|           W    W  A    A  R    R  N    N  II  N    N   GGGG   !!!           |
|                                                                             |
|     You requested a magnetic or noncollinear calculation, but did not       |
|     specify the initial magnetic moment with the MAGMOM tag. Note that      |
|     a default of 1 will be used for all atoms. This ferromagnetic setup     |
|     may break the symmetry of the crystal, in particular it may rule        |
|     out finding an antiferromagnetic solution. Thence, we recommend         |
|     setting the initial magnetic moment manually or verifying carefully     |
|     that this magnetic setup is desired.                                    |
|                                                                             |
 -----------------------------------------------------------------------------

 scaLAPACK will be used
 Reading from existing POTCAR
 LDA part: xc-table for (Slater+PW92), standard interpolation
 found WAVECAR, reading the header
 POSCAR, INCAR and KPOINTS ok, starting setup
 FFT: planning ... GRIDC
 FFT: planning ... GRID_SOFT
 FFT: planning ... GRID
 reading WAVECAR
 the WAVECAR file was read successfully
 initial charge from wavefunction
 entering main loop
       N       E                     dE             d eps       ncg     rms          rms(c)
DAV:   1    -0.714036032195E+04   -0.71404E+04   -0.34905E-06  6560   0.427E-03    0.333E-03
DAV:   2    -0.714036032080E+04    0.11471E-05   -0.43357E-06  6736   0.592E-03    0.191E-03
DAV:   3    -0.714036032014E+04    0.65877E-06   -0.61427E-07  5704   0.234E-03
   1 F= -.71403603E+04 E0= -.71403603E+04  d E =0.000000E+00  mag=     1.0000
 writing wavefunctions
 running  128 mpi-ranks, with    1 threads/rank, on    2 nodes
 distrk:  each k-point on  128 cores,    1 groups
 distr:  one band on   16 cores,    8 groups
 vasp.6.5.1 10Mar25 (build May 02 2025 16:22:06) gamma-only                     
  
 POSCAR found type information on POSCAR SiP 
 POSCAR found :  2 types and     512 ions
 Reading from existing POTCAR
 -----------------------------------------------------------------------------
|                                                                             |
|           W    W    AA    RRRRR   N    N  II  N    N   GGGG   !!!           |
|           W    W   A  A   R    R  NN   N  II  NN   N  G    G  !!!           |
|           W    W  A    A  R    R  N N  N  II  N N  N  G       !!!           |
|           W WW W  AAAAAA  RRRRR   N  N N  II  N  N N  G  GGG   !            |
|           WW  WW  A    A  R   R   N   NN  II  N   NN  G    G                |
|           W    W  A    A  R    R  N    N  II  N    N   GGGG   !!!           |
|                                                                             |
|     You requested a magnetic or noncollinear calculation, but did not       |
|     specify the initial magnetic moment with the MAGMOM tag. Note that      |
|     a default of 1 will be used for all atoms. This ferromagnetic setup     |
|     may break the symmetry of the crystal, in particular it may rule        |
|     out finding an antiferromagnetic solution. Thence, we recommend         |
|     setting the initial magnetic moment manually or verifying carefully     |
|     that this magnetic setup is desired.                                    |
|                                                                             |
 -----------------------------------------------------------------------------

 scaLAPACK will be used
 Reading from existing POTCAR
 LDA part: xc-table for (Slater+PW92), standard interpolation
 found WAVECAR, reading the header
 POSCAR, INCAR and KPOINTS ok, starting setup
 FFT: planning ... GRIDC
 FFT: planning ... GRID_SOFT
 FFT: planning ... GRID
 reading WAVECAR
 the WAVECAR file was read successfully
 initial charge from wavefunction
 entering main loop
       N       E                     dE             d eps       ncg     rms          rms(c)
DAV:   1    -0.714437078088E+04   -0.71444E+04   -0.68293E-01  7696   0.328E-01    0.113E+00
DAV:   2    -0.714435417974E+04    0.16601E-01   -0.93777E-02  7904   0.219E-01    0.611E-01
DAV:   3    -0.714434692546E+04    0.72543E-02   -0.19722E-02  8272   0.180E-01    0.451E-01
DAV:   4    -0.714434271219E+04    0.42133E-02   -0.17940E-02  8408   0.123E-01    0.251E-01
DAV:   5    -0.714434252755E+04    0.18464E-03   -0.56033E-03  7872   0.502E-02    0.227E-01
DAV:   6    -0.714434250639E+04    0.21160E-04   -0.74336E-04  7736   0.166E-02    0.205E-01
DAV:   7    -0.714434249338E+04    0.13010E-04   -0.64483E-04  7640   0.188E-02    0.988E-02
DAV:   8    -0.714434246847E+04    0.24911E-04   -0.38841E-04  7432   0.121E-02    0.386E-02
DAV:   9    -0.714434244482E+04    0.23653E-04   -0.57653E-05  7528   0.546E-03    0.273E-02
DAV:  10    -0.714434243952E+04    0.53021E-05   -0.27705E-05  7576   0.344E-03    0.160E-02
DAV:  11    -0.714434244045E+04   -0.93482E-06   -0.11416E-05  7808   0.261E-03    0.110E-02
DAV:  12    -0.714434243986E+04    0.59244E-06   -0.34129E-06  7048   0.192E-03
   1 F= -.71443424E+04 E0= -.71443424E+04  d E =-.195793E-15  mag=     1.0000
 writing wavefunctions
 running  128 mpi-ranks, with    1 threads/rank, on    2 nodes
 distrk:  each k-point on  128 cores,    1 groups
 distr:  one band on   16 cores,    8 groups
 vasp.6.5.1 10Mar25 (build May 02 2025 16:22:06) gamma-only                     
  
 POSCAR found type information on POSCAR SiP 
 POSCAR found :  2 types and     512 ions
 Reading from existing POTCAR
 -----------------------------------------------------------------------------
|                                                                             |
|           W    W    AA    RRRRR   N    N  II  N    N   GGGG   !!!           |
|           W    W   A  A   R    R  NN   N  II  NN   N  G    G  !!!           |
|           W    W  A    A  R    R  N N  N  II  N N  N  G       !!!           |
|           W WW W  AAAAAA  RRRRR   N  N N  II  N  N N  G  GGG   !            |
|           WW  WW  A    A  R   R   N   NN  II  N   NN  G    G                |
|           W    W  A    A  R    R  N    N  II  N    N   GGGG   !!!           |
|                                                                             |
|     You requested a magnetic or noncollinear calculation, but did not       |
|     specify the initial magnetic moment with the MAGMOM tag. Note that      |
|     a default of 1 will be used for all atoms. This ferromagnetic setup     |
|     may break the symmetry of the crystal, in particular it may rule        |
|     out finding an antiferromagnetic solution. Thence, we recommend         |
|     setting the initial magnetic moment manually or verifying carefully     |
|     that this magnetic setup is desired.                                    |
|                                                                             |
 -----------------------------------------------------------------------------

 scaLAPACK will be used
 Reading from existing POTCAR
 LDA part: xc-table for (Slater+PW92), standard interpolation
 found WAVECAR, reading the header
 POSCAR, INCAR and KPOINTS ok, starting setup
 FFT: planning ... GRIDC
 FFT: planning ... GRID_SOFT
 FFT: planning ... GRID
 reading WAVECAR
 the WAVECAR file was read successfully
 initial charge from wavefunction
 entering main loop
       N       E                     dE             d eps       ncg     rms          rms(c)
DAV:   1    -0.714434244067E+04   -0.71443E+04   -0.18737E-06  6008   0.305E-03    0.220E-03
DAV:   2    -0.714434244013E+04    0.53685E-06   -0.32113E-06  6304   0.443E-03
   1 F= -.71443424E+04 E0= -.71443424E+04  d E =0.000000E+00  mag=     1.0000
 writing wavefunctions
 running  128 mpi-ranks, with    1 threads/rank, on    2 nodes
 distrk:  each k-point on  128 cores,    1 groups
 distr:  one band on   16 cores,    8 groups
 vasp.6.5.1 10Mar25 (build May 02 2025 16:22:06) gamma-only                     
  
 POSCAR found type information on POSCAR SiP 
 POSCAR found :  2 types and     512 ions
 Reading from existing POTCAR
 -----------------------------------------------------------------------------
|                                                                             |
|           W    W    AA    RRRRR   N    N  II  N    N   GGGG   !!!           |
|           W    W   A  A   R    R  NN   N  II  NN   N  G    G  !!!           |
|           W    W  A    A  R    R  N N  N  II  N N  N  G       !!!           |
|           W WW W  AAAAAA  RRRRR   N  N N  II  N  N N  G  GGG   !            |
|           WW  WW  A    A  R   R   N   NN  II  N   NN  G    G                |
|           W    W  A    A  R    R  N    N  II  N    N   GGGG   !!!           |
|                                                                             |
|     You requested a magnetic or noncollinear calculation, but did not       |
|     specify the initial magnetic moment with the MAGMOM tag. Note that      |
|     a default of 1 will be used for all atoms. This ferromagnetic setup     |
|     may break the symmetry of the crystal, in particular it may rule        |
|     out finding an antiferromagnetic solution. Thence, we recommend         |
|     setting the initial magnetic moment manually or verifying carefully     |
|     that this magnetic setup is desired.                                    |
|                                                                             |
 -----------------------------------------------------------------------------

 scaLAPACK will be used
 Reading from existing POTCAR
 LDA part: xc-table for (Slater+PW92), standard interpolation
 found WAVECAR, reading the header
 POSCAR, INCAR and KPOINTS ok, starting setup
 FFT: planning ... GRIDC
 FFT: planning ... GRID_SOFT
 FFT: planning ... GRID
 reading WAVECAR
 the WAVECAR file was read successfully
 initial charge from wavefunction
 entering main loop
       N       E                     dE             d eps       ncg     rms          rms(c)
DAV:   1    -0.712135159733E+04   -0.71214E+04   -0.44100E+00  7520   0.119E+00    0.400E+00
DAV:   2    -0.712099487460E+04    0.35672E+00   -0.14407E+00  8040   0.948E-01    0.258E+00
DAV:   3    -0.712087655245E+04    0.11832E+00   -0.54514E-01  8336   0.787E-01    0.225E+00
DAV:   4    -0.712086204230E+04    0.14510E-01   -0.34426E-01  8152   0.418E-01    0.150E+00
DAV:   5    -0.712087023183E+04   -0.81895E-02   -0.18076E-01  7304   0.197E-01    0.147E+00
DAV:   6    -0.712086290095E+04    0.73309E-02   -0.78811E-03  7776   0.645E-02    0.124E+00
DAV:   7    -0.712085395543E+04    0.89455E-02   -0.32707E-02  8112   0.137E-01    0.259E-01
DAV:   8    -0.712085495319E+04   -0.99776E-03   -0.10596E-02  7176   0.491E-02    0.212E-01
DAV:   9    -0.712085496178E+04   -0.85864E-05   -0.40059E-04  7896   0.133E-02    0.210E-01
DAV:  10    -0.712085487216E+04    0.89622E-04   -0.87463E-05  8064   0.680E-03    0.171E-01
DAV:  11    -0.712085476662E+04    0.10554E-03   -0.82687E-04  8088   0.178E-02    0.926E-02
DAV:  12    -0.712085473578E+04    0.30837E-04   -0.24550E-04  7360   0.954E-03    0.874E-02
DAV:  13    -0.712085472252E+04    0.13262E-04   -0.60572E-05  7592   0.331E-03    0.654E-02
DAV:  14    -0.712085471919E+04    0.33326E-05   -0.10931E-05  7176   0.210E-03    0.442E-02
DAV:  15    -0.712085471475E+04    0.44391E-05   -0.15883E-05  7344   0.289E-03    0.129E-02
DAV:  16    -0.712085471598E+04   -0.12350E-05   -0.97738E-06  7128   0.178E-03    0.857E-03
DAV:  17    -0.712085471569E+04    0.29546E-06   -0.98587E-07  3704   0.593E-04
   1 F= -.71208547E+04 E0= -.71208547E+04  d E =-.153706E-38  mag=     1.0000
 writing wavefunctions
 running  128 mpi-ranks, with    1 threads/rank, on    2 nodes
 distrk:  each k-point on  128 cores,    1 groups
 distr:  one band on   16 cores,    8 groups
 vasp.6.5.1 10Mar25 (build May 02 2025 16:22:06) gamma-only                     
  
 POSCAR found type information on POSCAR SiP 
 POSCAR found :  2 types and     512 ions
 Reading from existing POTCAR
 -----------------------------------------------------------------------------
|                                                                             |
|           W    W    AA    RRRRR   N    N  II  N    N   GGGG   !!!           |
|           W    W   A  A   R    R  NN   N  II  NN   N  G    G  !!!           |
|           W    W  A    A  R    R  N N  N  II  N N  N  G       !!!           |
|           W WW W  AAAAAA  RRRRR   N  N N  II  N  N N  G  GGG   !            |
|           WW  WW  A    A  R   R   N   NN  II  N   NN  G    G                |
|           W    W  A    A  R    R  N    N  II  N    N   GGGG   !!!           |
|                                                                             |
|     You requested a magnetic or noncollinear calculation, but did not       |
|     specify the initial magnetic moment with the MAGMOM tag. Note that      |
|     a default of 1 will be used for all atoms. This ferromagnetic setup     |
|     may break the symmetry of the crystal, in particular it may rule        |
|     out finding an antiferromagnetic solution. Thence, we recommend         |
|     setting the initial magnetic moment manually or verifying carefully     |
|     that this magnetic setup is desired.                                    |
|                                                                             |
 -----------------------------------------------------------------------------

 scaLAPACK will be used
 Reading from existing POTCAR
 LDA part: xc-table for (Slater+PW92), standard interpolation
 found WAVECAR, reading the header
 POSCAR, INCAR and KPOINTS ok, starting setup
 FFT: planning ... GRIDC
 FFT: planning ... GRID_SOFT
 FFT: planning ... GRID
 reading WAVECAR
 the WAVECAR file was read successfully
 initial charge from wavefunction
 entering main loop
       N       E                     dE             d eps       ncg     rms          rms(c)
DAV:   1    -0.712085471865E+04   -0.71209E+04   -0.14697E-05  7504   0.448E-03    0.579E-03
DAV:   2    -0.712085471593E+04    0.27210E-05   -0.81748E-06  7880   0.522E-03    0.388E-03
DAV:   3    -0.712085471526E+04    0.66968E-06   -0.12891E-06  6416   0.193E-03
   1 F= -.71208547E+04 E0= -.71208547E+04  d E =0.000000E+00  mag=     1.0000
 writing wavefunctions
 running  128 mpi-ranks, with    1 threads/rank, on    2 nodes
 distrk:  each k-point on  128 cores,    1 groups
 distr:  one band on   16 cores,    8 groups
 vasp.6.5.1 10Mar25 (build May 02 2025 16:22:06) gamma-only                     
  
 POSCAR found type information on POSCAR SiP 
 POSCAR found :  2 types and     512 ions
 Reading from existing POTCAR
 -----------------------------------------------------------------------------
|                                                                             |
|           W    W    AA    RRRRR   N    N  II  N    N   GGGG   !!!           |
|           W    W   A  A   R    R  NN   N  II  NN   N  G    G  !!!           |
|           W    W  A    A  R    R  N N  N  II  N N  N  G       !!!           |
|           W WW W  AAAAAA  RRRRR   N  N N  II  N  N N  G  GGG   !            |
|           WW  WW  A    A  R   R   N   NN  II  N   NN  G    G                |
|           W    W  A    A  R    R  N    N  II  N    N   GGGG   !!!           |
|                                                                             |
|     You requested a magnetic or noncollinear calculation, but did not       |
|     specify the initial magnetic moment with the MAGMOM tag. Note that      |
|     a default of 1 will be used for all atoms. This ferromagnetic setup     |
|     may break the symmetry of the crystal, in particular it may rule        |
|     out finding an antiferromagnetic solution. Thence, we recommend         |
|     setting the initial magnetic moment manually or verifying carefully     |
|     that this magnetic setup is desired.                                    |
|                                                                             |
 -----------------------------------------------------------------------------

 scaLAPACK will be used
 Reading from existing POTCAR
 LDA part: xc-table for (Slater+PW92), standard interpolation
 found WAVECAR, reading the header
 POSCAR, INCAR and KPOINTS ok, starting setup
 FFT: planning ... GRIDC
 FFT: planning ... GRID_SOFT
 FFT: planning ... GRID
 reading WAVECAR
 the WAVECAR file was read successfully
 initial charge from wavefunction
 entering main loop
       N       E                     dE             d eps       ncg     rms          rms(c)
DAV:   1    -0.712185708911E+04   -0.71219E+04   -0.65851E-02  6984   0.804E-02    0.357E-01
DAV:   2    -0.712185305749E+04    0.40316E-02   -0.16301E-02  8088   0.781E-02    0.235E-01
DAV:   3    -0.712185185321E+04    0.12043E-02   -0.79501E-03  8272   0.624E-02    0.132E-01
DAV:   4    -0.712185165825E+04    0.19496E-03   -0.18237E-03  8568   0.422E-02    0.914E-02
DAV:   5    -0.712185164028E+04    0.17967E-04   -0.10339E-03  8088   0.216E-02    0.614E-02
DAV:   6    -0.712185165282E+04   -0.12540E-04   -0.15885E-04  7800   0.701E-03    0.512E-02
DAV:   7    -0.712185165181E+04    0.10099E-05   -0.29970E-05  7760   0.511E-03    0.295E-02
DAV:   8    -0.712185164934E+04    0.24666E-05   -0.26057E-05  7688   0.357E-03    0.892E-03
DAV:   9    -0.712185165083E+04   -0.14875E-05   -0.14673E-05  6208   0.152E-03    0.633E-03
DAV:  10    -0.712185165039E+04    0.43615E-06   -0.75087E-07  3840   0.599E-04
   1 F= -.71218517E+04 E0= -.71218517E+04  d E =-.919127E-26  mag=     1.0000
 writing wavefunctions
 running  128 mpi-ranks, with    1 threads/rank, on    2 nodes
 distrk:  each k-point on  128 cores,    1 groups
 distr:  one band on   16 cores,    8 groups
 vasp.6.5.1 10Mar25 (build May 02 2025 16:22:06) gamma-only                     
  
 POSCAR found type information on POSCAR SiP 
 POSCAR found :  2 types and     512 ions
 Reading from existing POTCAR
 -----------------------------------------------------------------------------
|                                                                             |
|           W    W    AA    RRRRR   N    N  II  N    N   GGGG   !!!           |
|           W    W   A  A   R    R  NN   N  II  NN   N  G    G  !!!           |
|           W    W  A    A  R    R  N N  N  II  N N  N  G       !!!           |
|           W WW W  AAAAAA  RRRRR   N  N N  II  N  N N  G  GGG   !            |
|           WW  WW  A    A  R   R   N   NN  II  N   NN  G    G                |
|           W    W  A    A  R    R  N    N  II  N    N   GGGG   !!!           |
|                                                                             |
|     You requested a magnetic or noncollinear calculation, but did not       |
|     specify the initial magnetic moment with the MAGMOM tag. Note that      |
|     a default of 1 will be used for all atoms. This ferromagnetic setup     |
|     may break the symmetry of the crystal, in particular it may rule        |
|     out finding an antiferromagnetic solution. Thence, we recommend         |
|     setting the initial magnetic moment manually or verifying carefully     |
|     that this magnetic setup is desired.                                    |
|                                                                             |
 -----------------------------------------------------------------------------

 scaLAPACK will be used
 Reading from existing POTCAR
 LDA part: xc-table for (Slater+PW92), standard interpolation
 found WAVECAR, reading the header
 POSCAR, INCAR and KPOINTS ok, starting setup
 FFT: planning ... GRIDC
 FFT: planning ... GRID_SOFT
 FFT: planning ... GRID
 reading WAVECAR
 the WAVECAR file was read successfully
 initial charge from wavefunction
 entering main loop
       N       E                     dE             d eps       ncg     rms          rms(c)
DAV:   1    -0.712185165043E+04   -0.71219E+04   -0.32010E-06  6608   0.185E-03    0.253E-03
DAV:   2    -0.712185165010E+04    0.33161E-06   -0.16797E-06  6136   0.226E-03
   1 F= -.71218517E+04 E0= -.71218517E+04  d E =0.000000E+00  mag=     1.0000
 writing wavefunctions
 running  128 mpi-ranks, with    1 threads/rank, on    2 nodes
 distrk:  each k-point on  128 cores,    1 groups
 distr:  one band on   16 cores,    8 groups
 vasp.6.5.1 10Mar25 (build May 02 2025 16:22:06) gamma-only                     
  
 POSCAR found type information on POSCAR SiP 
 POSCAR found :  2 types and     512 ions
 Reading from existing POTCAR
 -----------------------------------------------------------------------------
|                                                                             |
|           W    W    AA    RRRRR   N    N  II  N    N   GGGG   !!!           |
|           W    W   A  A   R    R  NN   N  II  NN   N  G    G  !!!           |
|           W    W  A    A  R    R  N N  N  II  N N  N  G       !!!           |
|           W WW W  AAAAAA  RRRRR   N  N N  II  N  N N  G  GGG   !            |
|           WW  WW  A    A  R   R   N   NN  II  N   NN  G    G                |
|           W    W  A    A  R    R  N    N  II  N    N   GGGG   !!!           |
|                                                                             |
|     You requested a magnetic or noncollinear calculation, but did not       |
|     specify the initial magnetic moment with the MAGMOM tag. Note that      |
|     a default of 1 will be used for all atoms. This ferromagnetic setup     |
|     may break the symmetry of the crystal, in particular it may rule        |
|     out finding an antiferromagnetic solution. Thence, we recommend         |
|     setting the initial magnetic moment manually or verifying carefully     |
|     that this magnetic setup is desired.                                    |
|                                                                             |
 -----------------------------------------------------------------------------

 scaLAPACK will be used
 Reading from existing POTCAR
 LDA part: xc-table for (Slater+PW92), standard interpolation
 found WAVECAR, reading the header
 POSCAR, INCAR and KPOINTS ok, starting setup
 FFT: planning ... GRIDC
 FFT: planning ... GRID_SOFT
 FFT: planning ... GRID
 reading WAVECAR
 the WAVECAR file was read successfully
 initial charge from wavefunction
 entering main loop
       N       E                     dE             d eps       ncg     rms          rms(c)
DAV:   1    -0.712292496099E+04   -0.71229E+04   -0.62654E-02  7352   0.868E-02    0.389E-01
DAV:   2    -0.712292112210E+04    0.38389E-02   -0.18874E-02  8176   0.880E-02    0.231E-01
DAV:   3    -0.712291965107E+04    0.14710E-02   -0.71471E-03  8528   0.713E-02    0.128E-01
DAV:   4    -0.712291936946E+04    0.28161E-03   -0.22532E-03  8592   0.457E-02    0.839E-02
DAV:   5    -0.712291939573E+04   -0.26265E-04   -0.13343E-03  7736   0.206E-02    0.662E-02
DAV:   6    -0.712291940375E+04   -0.80211E-05   -0.12143E-04  7896   0.665E-03    0.590E-02
DAV:   7    -0.712291939505E+04    0.86990E-05   -0.37901E-05  7528   0.519E-03    0.341E-02
DAV:   8    -0.712291939496E+04    0.89785E-07   -0.35886E-05  7464   0.363E-03    0.840E-03
DAV:   9    -0.712291939645E+04   -0.14870E-05   -0.17196E-05  6440   0.172E-03    0.903E-03
DAV:  10    -0.712291939615E+04    0.30038E-06   -0.74917E-07  3856   0.556E-04
   1 F= -.71229194E+04 E0= -.71229194E+04  d E =-.884327E-79  mag=     1.0000
 writing wavefunctions
 running  128 mpi-ranks, with    1 threads/rank, on    2 nodes
 distrk:  each k-point on  128 cores,    1 groups
 distr:  one band on   16 cores,    8 groups
 vasp.6.5.1 10Mar25 (build May 02 2025 16:22:06) gamma-only                     
  
 POSCAR found type information on POSCAR SiP 
 POSCAR found :  2 types and     512 ions
 Reading from existing POTCAR
 -----------------------------------------------------------------------------
|                                                                             |
|           W    W    AA    RRRRR   N    N  II  N    N   GGGG   !!!           |
|           W    W   A  A   R    R  NN   N  II  NN   N  G    G  !!!           |
|           W    W  A    A  R    R  N N  N  II  N N  N  G       !!!           |
|           W WW W  AAAAAA  RRRRR   N  N N  II  N  N N  G  GGG   !            |
|           WW  WW  A    A  R   R   N   NN  II  N   NN  G    G                |
|           W    W  A    A  R    R  N    N  II  N    N   GGGG   !!!           |
|                                                                             |
|     You requested a magnetic or noncollinear calculation, but did not       |
|     specify the initial magnetic moment with the MAGMOM tag. Note that      |
|     a default of 1 will be used for all atoms. This ferromagnetic setup     |
|     may break the symmetry of the crystal, in particular it may rule        |
|     out finding an antiferromagnetic solution. Thence, we recommend         |
|     setting the initial magnetic moment manually or verifying carefully     |
|     that this magnetic setup is desired.                                    |
|                                                                             |
 -----------------------------------------------------------------------------

 scaLAPACK will be used
 Reading from existing POTCAR
 LDA part: xc-table for (Slater+PW92), standard interpolation
 found WAVECAR, reading the header
 POSCAR, INCAR and KPOINTS ok, starting setup
 FFT: planning ... GRIDC
 FFT: planning ... GRID_SOFT
 FFT: planning ... GRID
 reading WAVECAR
 the WAVECAR file was read successfully
 initial charge from wavefunction
 entering main loop
       N       E                     dE             d eps       ncg     rms          rms(c)
DAV:   1    -0.712291939654E+04   -0.71229E+04   -0.65971E-06  6768   0.219E-03    0.334E-03
DAV:   2    -0.712291939573E+04    0.81034E-06   -0.26111E-06  6536   0.176E-03
   1 F= -.71229194E+04 E0= -.71229194E+04  d E =0.000000E+00  mag=     1.0000
 writing wavefunctions
 running  128 mpi-ranks, with    1 threads/rank, on    2 nodes
 distrk:  each k-point on  128 cores,    1 groups
 distr:  one band on   16 cores,    8 groups
 vasp.6.5.1 10Mar25 (build May 02 2025 16:22:06) gamma-only                     
  
 POSCAR found type information on POSCAR SiP 
 POSCAR found :  2 types and     512 ions
 Reading from existing POTCAR
 -----------------------------------------------------------------------------
|                                                                             |
|           W    W    AA    RRRRR   N    N  II  N    N   GGGG   !!!           |
|           W    W   A  A   R    R  NN   N  II  NN   N  G    G  !!!           |
|           W    W  A    A  R    R  N N  N  II  N N  N  G       !!!           |
|           W WW W  AAAAAA  RRRRR   N  N N  II  N  N N  G  GGG   !            |
|           WW  WW  A    A  R   R   N   NN  II  N   NN  G    G                |
|           W    W  A    A  R    R  N    N  II  N    N   GGGG   !!!           |
|                                                                             |
|     You requested a magnetic or noncollinear calculation, but did not       |
|     specify the initial magnetic moment with the MAGMOM tag. Note that      |
|     a default of 1 will be used for all atoms. This ferromagnetic setup     |
|     may break the symmetry of the crystal, in particular it may rule        |
|     out finding an antiferromagnetic solution. Thence, we recommend         |
|     setting the initial magnetic moment manually or verifying carefully     |
|     that this magnetic setup is desired.                                    |
|                                                                             |
 -----------------------------------------------------------------------------

 scaLAPACK will be used
 Reading from existing POTCAR
 LDA part: xc-table for (Slater+PW92), standard interpolation
 found WAVECAR, reading the header
 POSCAR, INCAR and KPOINTS ok, starting setup
 FFT: planning ... GRIDC
 FFT: planning ... GRID_SOFT
 FFT: planning ... GRID
 reading WAVECAR
 the WAVECAR file was read successfully
 initial charge from wavefunction
 entering main loop
       N       E                     dE             d eps       ncg     rms          rms(c)
DAV:   1    -0.712404282870E+04   -0.71240E+04   -0.57348E-02  7360   0.867E-02    0.417E-01
DAV:   2    -0.712403936973E+04    0.34590E-02   -0.18540E-02  8120   0.783E-02    0.231E-01
DAV:   3    -0.712403776827E+04    0.16015E-02   -0.61744E-03  8448   0.694E-02    0.131E-01
DAV:   4    -0.712403752421E+04    0.24405E-03   -0.25322E-03  8440   0.466E-02    0.868E-02
DAV:   5    -0.712403758357E+04   -0.59351E-04   -0.13966E-03  7704   0.209E-02    0.817E-02
DAV:   6    -0.712403758949E+04   -0.59203E-05   -0.11313E-04  7920   0.676E-03    0.710E-02
DAV:   7    -0.712403756584E+04    0.23643E-04   -0.71971E-05  7600   0.752E-03    0.299E-02
DAV:   8    -0.712403756560E+04    0.24118E-06   -0.54368E-05  7496   0.410E-03    0.917E-03
DAV:   9    -0.712403756734E+04   -0.17336E-05   -0.23624E-05  6608   0.190E-03    0.119E-02
DAV:  10    -0.712403756705E+04    0.28205E-06   -0.83457E-07  4096   0.625E-04
   1 F= -.71240376E+04 E0= -.71240376E+04  d E =-.799593E-30  mag=     1.0000
 writing wavefunctions
 running  128 mpi-ranks, with    1 threads/rank, on    2 nodes
 distrk:  each k-point on  128 cores,    1 groups
 distr:  one band on   16 cores,    8 groups
 vasp.6.5.1 10Mar25 (build May 02 2025 16:22:06) gamma-only                     
  
 POSCAR found type information on POSCAR SiP 
 POSCAR found :  2 types and     512 ions
 Reading from existing POTCAR
 -----------------------------------------------------------------------------
|                                                                             |
|           W    W    AA    RRRRR   N    N  II  N    N   GGGG   !!!           |
|           W    W   A  A   R    R  NN   N  II  NN   N  G    G  !!!           |
|           W    W  A    A  R    R  N N  N  II  N N  N  G       !!!           |
|           W WW W  AAAAAA  RRRRR   N  N N  II  N  N N  G  GGG   !            |
|           WW  WW  A    A  R   R   N   NN  II  N   NN  G    G                |
|           W    W  A    A  R    R  N    N  II  N    N   GGGG   !!!           |
|                                                                             |
|     You requested a magnetic or noncollinear calculation, but did not       |
|     specify the initial magnetic moment with the MAGMOM tag. Note that      |
|     a default of 1 will be used for all atoms. This ferromagnetic setup     |
|     may break the symmetry of the crystal, in particular it may rule        |
|     out finding an antiferromagnetic solution. Thence, we recommend         |
|     setting the initial magnetic moment manually or verifying carefully     |
|     that this magnetic setup is desired.                                    |
|                                                                             |
 -----------------------------------------------------------------------------

 scaLAPACK will be used
 Reading from existing POTCAR
 LDA part: xc-table for (Slater+PW92), standard interpolation
 found WAVECAR, reading the header
 POSCAR, INCAR and KPOINTS ok, starting setup
 FFT: planning ... GRIDC
 FFT: planning ... GRID_SOFT
 FFT: planning ... GRID
 reading WAVECAR
 the WAVECAR file was read successfully
 initial charge from wavefunction
 entering main loop
       N       E                     dE             d eps       ncg     rms          rms(c)
DAV:   1    -0.712403756837E+04   -0.71240E+04   -0.10740E-05  7072   0.292E-03    0.448E-03
DAV:   2    -0.712403756677E+04    0.15992E-05   -0.49310E-06  7264   0.267E-03    0.305E-03
DAV:   3    -0.712403756638E+04    0.38726E-06   -0.12674E-06  5552   0.113E-03
   1 F= -.71240376E+04 E0= -.71240376E+04  d E =0.000000E+00  mag=     1.0000
[...]
|     may break the symmetry of the crystal, in particular it may rule        |
|     out finding an antiferromagnetic solution. Thence, we recommend         |
|     setting the initial magnetic moment manually or verifying carefully     |
|     that this magnetic setup is desired.                                    |
|                                                                             |
 -----------------------------------------------------------------------------

 scaLAPACK will be used
 Reading from existing POTCAR
 LDA part: xc-table for (Slater+PW92), standard interpolation
 found WAVECAR, reading the header
 POSCAR, INCAR and KPOINTS ok, starting setup
 FFT: planning ... GRIDC
 FFT: planning ... GRID_SOFT
 FFT: planning ... GRID
 reading WAVECAR
 the WAVECAR file was read successfully
 initial charge from wavefunction
 entering main loop
       N       E                     dE             d eps       ncg     rms          rms(c)
DAV:   1    -0.712635009727E+04   -0.71264E+04   -0.26567E-06  6232   0.325E-03    0.272E-03
DAV:   2    -0.712635009660E+04    0.67701E-06   -0.39408E-06  6512   0.472E-03
   1 F= -.71263501E+04 E0= -.71263501E+04  d E =0.000000E+00  mag=     1.0000
 writing wavefunctions
 running  128 mpi-ranks, with    1 threads/rank, on    2 nodes
 distrk:  each k-point on  128 cores,    1 groups
 distr:  one band on   16 cores,    8 groups
 vasp.6.5.1 10Mar25 (build May 02 2025 16:22:06) gamma-only                     
  
 POSCAR found type information on POSCAR SiP 
 POSCAR found :  2 types and     512 ions
 Reading from existing POTCAR
 -----------------------------------------------------------------------------
|                                                                             |
|           W    W    AA    RRRRR   N    N  II  N    N   GGGG   !!!           |
|           W    W   A  A   R    R  NN   N  II  NN   N  G    G  !!!           |
|           W    W  A    A  R    R  N N  N  II  N N  N  G       !!!           |
|           W WW W  AAAAAA  RRRRR   N  N N  II  N  N N  G  GGG   !            |
|           WW  WW  A    A  R   R   N   NN  II  N   NN  G    G                |
|           W    W  A    A  R    R  N    N  II  N    N   GGGG   !!!           |
|                                                                             |
|     You requested a magnetic or noncollinear calculation, but did not       |
|     specify the initial magnetic moment with the MAGMOM tag. Note that      |
|     a default of 1 will be used for all atoms. This ferromagnetic setup     |
|     may break the symmetry of the crystal, in particular it may rule        |
|     out finding an antiferromagnetic solution. Thence, we recommend         |
|     setting the initial magnetic moment manually or verifying carefully     |
|     that this magnetic setup is desired.                                    |
|                                                                             |
 -----------------------------------------------------------------------------

 scaLAPACK will be used
 Reading from existing POTCAR
 LDA part: xc-table for (Slater+PW92), standard interpolation
 found WAVECAR, reading the header
 POSCAR, INCAR and KPOINTS ok, starting setup
 FFT: planning ... GRIDC
 FFT: planning ... GRID_SOFT
 FFT: planning ... GRID
 reading WAVECAR
 the WAVECAR file was read successfully
 initial charge from wavefunction
 entering main loop
       N       E                     dE             d eps       ncg     rms          rms(c)
DAV:   1    -0.712751668643E+04   -0.71275E+04   -0.38301E-02  8040   0.919E-02    0.458E-01
DAV:   2    -0.712751481288E+04    0.18736E-02   -0.14499E-02  8408   0.813E-02    0.265E-01
DAV:   3    -0.712751358228E+04    0.12306E-02   -0.35347E-03  8688   0.848E-02    0.191E-01
DAV:   4    -0.712751334142E+04    0.24086E-03   -0.30415E-03  8568   0.556E-02    0.124E-01
DAV:   5    -0.712751351054E+04   -0.16912E-03   -0.20635E-03  7160   0.195E-02    0.147E-01
DAV:   6    -0.712751350281E+04    0.77245E-05   -0.73458E-05  7688   0.543E-03    0.140E-01
DAV:   7    -0.712751337898E+04    0.12384E-03   -0.10347E-04  7408   0.653E-03    0.855E-02
DAV:   8    -0.712751331662E+04    0.62358E-04   -0.34490E-04  7352   0.994E-03    0.248E-02
DAV:   9    -0.712751333272E+04   -0.16101E-04   -0.19171E-04  7096   0.530E-03    0.424E-02
DAV:  10    -0.712751333451E+04   -0.17932E-05   -0.30613E-06  6584   0.107E-03    0.376E-02
DAV:  11    -0.712751333113E+04    0.33838E-05   -0.65388E-07  4456   0.689E-04    0.311E-02
DAV:  12    -0.712751332852E+04    0.26116E-05   -0.47015E-05  6840   0.323E-03    0.137E-02
DAV:  13    -0.712751332766E+04    0.86013E-06   -0.16633E-05  6240   0.176E-03    0.170E-02
DAV:  14    -0.712751332600E+04    0.16574E-05   -0.35269E-06  4936   0.732E-04    0.711E-03
DAV:  15    -0.712751332596E+04    0.35972E-07   -0.13999E-06  3976   0.536E-04
   1 F= -.71275133E+04 E0= -.71275133E+04  d E =-.850719-130  mag=     1.0000
 writing wavefunctions
 running  128 mpi-ranks, with    1 threads/rank, on    2 nodes
 distrk:  each k-point on  128 cores,    1 groups
 distr:  one band on   16 cores,    8 groups
 vasp.6.5.1 10Mar25 (build May 02 2025 16:22:06) gamma-only                     
  
 POSCAR found type information on POSCAR SiP 
 POSCAR found :  2 types and     512 ions
 Reading from existing POTCAR
 -----------------------------------------------------------------------------
|                                                                             |
|           W    W    AA    RRRRR   N    N  II  N    N   GGGG   !!!           |
|           W    W   A  A   R    R  NN   N  II  NN   N  G    G  !!!           |
|           W    W  A    A  R    R  N N  N  II  N N  N  G       !!!           |
|           W WW W  AAAAAA  RRRRR   N  N N  II  N  N N  G  GGG   !            |
|           WW  WW  A    A  R   R   N   NN  II  N   NN  G    G                |
|           W    W  A    A  R    R  N    N  II  N    N   GGGG   !!!           |
|                                                                             |
|     You requested a magnetic or noncollinear calculation, but did not       |
|     specify the initial magnetic moment with the MAGMOM tag. Note that      |
|     a default of 1 will be used for all atoms. This ferromagnetic setup     |
|     may break the symmetry of the crystal, in particular it may rule        |
|     out finding an antiferromagnetic solution. Thence, we recommend         |
|     setting the initial magnetic moment manually or verifying carefully     |
|     that this magnetic setup is desired.                                    |
|                                                                             |
 -----------------------------------------------------------------------------

 scaLAPACK will be used
 Reading from existing POTCAR
 LDA part: xc-table for (Slater+PW92), standard interpolation
 found WAVECAR, reading the header
 POSCAR, INCAR and KPOINTS ok, starting setup
 FFT: planning ... GRIDC
 FFT: planning ... GRID_SOFT
 FFT: planning ... GRID
 reading WAVECAR
 the WAVECAR file was read successfully
 initial charge from wavefunction
 entering main loop
       N       E                     dE             d eps       ncg     rms          rms(c)
DAV:   1    -0.712751332617E+04   -0.71275E+04   -0.15298E-06  5576   0.101E-03    0.176E-03
DAV:   2    -0.712751332601E+04    0.16094E-06   -0.63256E-07  5424   0.122E-03
   1 F= -.71275133E+04 E0= -.71275133E+04  d E =0.000000E+00  mag=     1.0000
 writing wavefunctions
 running  128 mpi-ranks, with    1 threads/rank, on    2 nodes
 distrk:  each k-point on  128 cores,    1 groups
 distr:  one band on   16 cores,    8 groups
 vasp.6.5.1 10Mar25 (build May 02 2025 16:22:06) gamma-only                     
  
 POSCAR found type information on POSCAR SiP 
 POSCAR found :  2 types and     512 ions
 Reading from existing POTCAR
 -----------------------------------------------------------------------------
|                                                                             |
|           W    W    AA    RRRRR   N    N  II  N    N   GGGG   !!!           |
|           W    W   A  A   R    R  NN   N  II  NN   N  G    G  !!!           |
|           W    W  A    A  R    R  N N  N  II  N N  N  G       !!!           |
|           W WW W  AAAAAA  RRRRR   N  N N  II  N  N N  G  GGG   !            |
|           WW  WW  A    A  R   R   N   NN  II  N   NN  G    G                |
|           W    W  A    A  R    R  N    N  II  N    N   GGGG   !!!           |
|                                                                             |
|     You requested a magnetic or noncollinear calculation, but did not       |
|     specify the initial magnetic moment with the MAGMOM tag. Note that      |
|     a default of 1 will be used for all atoms. This ferromagnetic setup     |
|     may break the symmetry of the crystal, in particular it may rule        |
|     out finding an antiferromagnetic solution. Thence, we recommend         |
|     setting the initial magnetic moment manually or verifying carefully     |
|     that this magnetic setup is desired.                                    |
|                                                                             |
 -----------------------------------------------------------------------------

 scaLAPACK will be used
 Reading from existing POTCAR
 LDA part: xc-table for (Slater+PW92), standard interpolation
 found WAVECAR, reading the header
 POSCAR, INCAR and KPOINTS ok, starting setup
 FFT: planning ... GRIDC
 FFT: planning ... GRID_SOFT
 FFT: planning ... GRID
 reading WAVECAR
 the WAVECAR file was read successfully
 initial charge from wavefunction
 entering main loop
       N       E                     dE             d eps       ncg     rms          rms(c)
DAV:   1    -0.712866862161E+04   -0.71287E+04   -0.35211E-02  7744   0.832E-02    0.451E-01
DAV:   2    -0.712866713493E+04    0.14867E-02   -0.10963E-02  7840   0.506E-02    0.274E-01
DAV:   3    -0.712866604955E+04    0.10854E-02   -0.31947E-03  8496   0.633E-02    0.175E-01
DAV:   4    -0.712866610042E+04   -0.50874E-04   -0.27872E-03  8320   0.452E-02    0.133E-01
DAV:   5    -0.712866619625E+04   -0.95832E-04   -0.11957E-03  7384   0.173E-02    0.147E-01
DAV:   6    -0.712866618508E+04    0.11179E-04   -0.60671E-05  7760   0.452E-03    0.139E-01
DAV:   7    -0.712866600894E+04    0.17613E-03   -0.25270E-04  7816   0.120E-02    0.415E-02
DAV:   8    -0.712866599078E+04    0.18160E-04   -0.28713E-04  7672   0.909E-03    0.163E-02
DAV:   9    -0.712866599849E+04   -0.77105E-05   -0.96196E-05  7272   0.442E-03    0.239E-02
DAV:  10    -0.712866599773E+04    0.75961E-06   -0.34036E-06  6264   0.119E-03
   1 F= -.71286660E+04 E0= -.71286660E+04  d E =-.134911-137  mag=     1.0000
 writing wavefunctions
 running  128 mpi-ranks, with    1 threads/rank, on    2 nodes
 distrk:  each k-point on  128 cores,    1 groups
 distr:  one band on   16 cores,    8 groups
 vasp.6.5.1 10Mar25 (build May 02 2025 16:22:06) gamma-only                     
  
 POSCAR found type information on POSCAR SiP 
 POSCAR found :  2 types and     512 ions
 Reading from existing POTCAR
 -----------------------------------------------------------------------------
|                                                                             |
|           W    W    AA    RRRRR   N    N  II  N    N   GGGG   !!!           |
|           W    W   A  A   R    R  NN   N  II  NN   N  G    G  !!!           |
|           W    W  A    A  R    R  N N  N  II  N N  N  G       !!!           |
|           W WW W  AAAAAA  RRRRR   N  N N  II  N  N N  G  GGG   !            |
|           WW  WW  A    A  R   R   N   NN  II  N   NN  G    G                |
|           W    W  A    A  R    R  N    N  II  N    N   GGGG   !!!           |
|                                                                             |
|     You requested a magnetic or noncollinear calculation, but did not       |
|     specify the initial magnetic moment with the MAGMOM tag. Note that      |
|     a default of 1 will be used for all atoms. This ferromagnetic setup     |
|     may break the symmetry of the crystal, in particular it may rule        |
|     out finding an antiferromagnetic solution. Thence, we recommend         |
|     setting the initial magnetic moment manually or verifying carefully     |
|     that this magnetic setup is desired.                                    |
|                                                                             |
 -----------------------------------------------------------------------------

 scaLAPACK will be used
 Reading from existing POTCAR
 LDA part: xc-table for (Slater+PW92), standard interpolation
 found WAVECAR, reading the header
 POSCAR, INCAR and KPOINTS ok, starting setup
 FFT: planning ... GRIDC
 FFT: planning ... GRID_SOFT
 FFT: planning ... GRID
 reading WAVECAR
 the WAVECAR file was read successfully
 initial charge from wavefunction
 entering main loop
       N       E                     dE             d eps       ncg     rms          rms(c)
DAV:   1    -0.712866600359E+04   -0.71287E+04   -0.33230E-05  8104   0.611E-03    0.895E-03
DAV:   2    -0.712866599872E+04    0.48649E-05   -0.21701E-05  8096   0.774E-03    0.736E-03
DAV:   3    -0.712866599650E+04    0.22194E-05   -0.55870E-06  7328   0.356E-03    0.408E-03
DAV:   4    -0.712866599593E+04    0.57495E-06   -0.38370E-06  6112   0.113E-03
   1 F= -.71286660E+04 E0= -.71286660E+04  d E =0.000000E+00  mag=     1.0000
 writing wavefunctions
 running  128 mpi-ranks, with    1 threads/rank, on    2 nodes
 distrk:  each k-point on  128 cores,    1 groups
 distr:  one band on   16 cores,    8 groups
 vasp.6.5.1 10Mar25 (build May 02 2025 16:22:06) gamma-only                     
  
 POSCAR found type information on POSCAR SiP 
 POSCAR found :  2 types and     512 ions
 Reading from existing POTCAR
 -----------------------------------------------------------------------------
|                                                                             |
|           W    W    AA    RRRRR   N    N  II  N    N   GGGG   !!!           |
|           W    W   A  A   R    R  NN   N  II  NN   N  G    G  !!!           |
|           W    W  A    A  R    R  N N  N  II  N N  N  G       !!!           |
|           W WW W  AAAAAA  RRRRR   N  N N  II  N  N N  G  GGG   !            |
|           WW  WW  A    A  R   R   N   NN  II  N   NN  G    G                |
|           W    W  A    A  R    R  N    N  II  N    N   GGGG   !!!           |
|                                                                             |
|     You requested a magnetic or noncollinear calculation, but did not       |
|     specify the initial magnetic moment with the MAGMOM tag. Note that      |
|     a default of 1 will be used for all atoms. This ferromagnetic setup     |
|     may break the symmetry of the crystal, in particular it may rule        |
|     out finding an antiferromagnetic solution. Thence, we recommend         |
|     setting the initial magnetic moment manually or verifying carefully     |
|     that this magnetic setup is desired.                                    |
|                                                                             |
 -----------------------------------------------------------------------------

 scaLAPACK will be used
 Reading from existing POTCAR
 LDA part: xc-table for (Slater+PW92), standard interpolation
 found WAVECAR, reading the header
 POSCAR, INCAR and KPOINTS ok, starting setup
 FFT: planning ... GRIDC
 FFT: planning ... GRID_SOFT
 FFT: planning ... GRID
 reading WAVECAR
 the WAVECAR file was read successfully
 initial charge from wavefunction
 entering main loop
       N       E                     dE             d eps       ncg     rms          rms(c)
DAV:   1    -0.712980186125E+04   -0.71298E+04   -0.32873E-02  7712   0.817E-02    0.435E-01
DAV:   2    -0.712980067833E+04    0.11829E-02   -0.91753E-03  7840   0.494E-02    0.266E-01
DAV:   3    -0.712979985672E+04    0.82161E-03   -0.28265E-03  8520   0.646E-02    0.170E-01
DAV:   4    -0.712979987756E+04   -0.20837E-04   -0.24006E-03  8376   0.455E-02    0.122E-01
DAV:   5    -0.712979996879E+04   -0.91239E-04   -0.11608E-03  7208   0.157E-02    0.142E-01
DAV:   6    -0.712979997174E+04   -0.29430E-05   -0.54055E-05  7512   0.357E-03    0.144E-01
DAV:   7    -0.712980000614E+04   -0.34405E-04   -0.13673E-05  7968   0.489E-03    0.162E-01
DAV:   8    -0.712979978602E+04    0.22012E-03   -0.39702E-04  8272   0.138E-02    0.755E-02
DAV:   9    -0.712979984080E+04   -0.54780E-04   -0.63581E-04  7952   0.185E-02    0.770E-02
DAV:  10    -0.712979983967E+04    0.11284E-05   -0.22383E-04  7056   0.725E-03    0.111E-01
DAV:  11    -0.712979983234E+04    0.73358E-05   -0.76167E-06  7664   0.169E-03    0.944E-02
DAV:  12    -0.712979983327E+04   -0.93086E-06   -0.81194E-07  3792   0.513E-04
   1 F= -.71297998E+04 E0= -.71297998E+04  d E =-.241125-104  mag=     1.0000
 writing wavefunctions
 running  128 mpi-ranks, with    1 threads/rank, on    2 nodes
 distrk:  each k-point on  128 cores,    1 groups
 distr:  one band on   16 cores,    8 groups
 vasp.6.5.1 10Mar25 (build May 02 2025 16:22:06) gamma-only                     
  
 POSCAR found type information on POSCAR SiP 
 POSCAR found :  2 types and     512 ions
 Reading from existing POTCAR
 -----------------------------------------------------------------------------
|                                                                             |
|           W    W    AA    RRRRR   N    N  II  N    N   GGGG   !!!           |
|           W    W   A  A   R    R  NN   N  II  NN   N  G    G  !!!           |
|           W    W  A    A  R    R  N N  N  II  N N  N  G       !!!           |
|           W WW W  AAAAAA  RRRRR   N  N N  II  N  N N  G  GGG   !            |
|           WW  WW  A    A  R   R   N   NN  II  N   NN  G    G                |
|           W    W  A    A  R    R  N    N  II  N    N   GGGG   !!!           |
|                                                                             |
|     You requested a magnetic or noncollinear calculation, but did not       |
|     specify the initial magnetic moment with the MAGMOM tag. Note that      |
|     a default of 1 will be used for all atoms. This ferromagnetic setup     |
|     may break the symmetry of the crystal, in particular it may rule        |
|     out finding an antiferromagnetic solution. Thence, we recommend         |
|     setting the initial magnetic moment manually or verifying carefully     |
|     that this magnetic setup is desired.                                    |
|                                                                             |
 -----------------------------------------------------------------------------

 scaLAPACK will be used
 Reading from existing POTCAR
 LDA part: xc-table for (Slater+PW92), standard interpolation
 found WAVECAR, reading the header
 POSCAR, INCAR and KPOINTS ok, starting setup
 FFT: planning ... GRIDC
 FFT: planning ... GRID_SOFT
 FFT: planning ... GRID
 reading WAVECAR
 the WAVECAR file was read successfully
 initial charge from wavefunction
 entering main loop
       N       E                     dE             d eps       ncg     rms          rms(c)
DAV:   1    -0.712979992171E+04   -0.71298E+04   -0.98300E-04  7696   0.229E-02    0.447E-02
DAV:   2    -0.712979980767E+04    0.11404E-03   -0.39130E-04  7448   0.167E-02    0.341E-02
DAV:   3    -0.712979977701E+04    0.30664E-04   -0.85034E-05  7632   0.583E-03    0.217E-02
DAV:   4    -0.712979976873E+04    0.82703E-05   -0.53386E-05  7760   0.459E-03    0.158E-02
DAV:   5    -0.712979976845E+04    0.28749E-06   -0.14809E-05  7576   0.263E-03    0.680E-03
DAV:   6    -0.712979976861E+04   -0.16246E-06   -0.33037E-06  5808   0.110E-03
   1 F= -.71297998E+04 E0= -.71297998E+04  d E =0.000000E+00  mag=     1.0000
 writing wavefunctions
